LAMMPS description

    6800          atoms
    5950          bonds
   10200         angles
    7650      dihedrals
       0      impropers

       6     atom types
       6     bond types
       8    angle types
       6 dihedral types
       0 improper types


  0.0000000      50.354000     xlo xhi
  0.0000000      50.354000     ylo yhi
  0.0000000      50.354000     zlo zhi

 Atoms

      1      1      4      0.0000000     21.7390000     21.6420000     36.8130000
      2      1      6      0.0000000     20.8130000     21.5100000     38.6310000
      3      1      6      0.0000000     23.3310000     19.1300000     36.4900000
      4      1      5      0.0000000     21.7010000     22.6910000     36.5440000
      5      1      4      0.0000000     23.1530000     21.0760000     36.9090000
      6      1      5      0.0000000     21.1370000     21.0240000     36.0660000
      7      1      5      0.0000000     23.8590000     21.4220000     36.1680000
      8      1      5      0.0000000     23.6620000     21.0540000     37.9120000
      9      2      4      0.0000000     31.8820000     31.2910000     31.9780000
     10      2      6      0.0000000     32.7910000     31.3370000     33.6890000
     11      2      6      0.0000000     31.4720000     30.1270000     29.3910000
     12      2      5      0.0000000     31.9850000     32.2460000     31.4750000
     13      2      4      0.0000000     32.4110000     30.1760000     31.0910000
     14      2      5      0.0000000     30.8060000     31.2060000     32.1920000
     15      2      5      0.0000000     33.4350000     30.1960000     30.8070000
     16      2      5      0.0000000     32.1790000     29.2390000     31.6500000
     17      3      4      0.0000000      1.6250000     44.0940000     33.1140000
     18      3      6      0.0000000      2.6070000     43.0450000     31.8270000
     19      3      6      0.0000000      1.4120000     46.9250000     32.9460000
     20      3      5      0.0000000      1.5130000     43.3660000     33.8920000
     21      3      4      0.0000000      2.4700000     45.3900000     33.5280000
     22      3      5      0.0000000      0.6730000     44.3440000     32.6000000
     23      3      5      0.0000000      2.7440000     45.4190000     34.5700000
     24      3      5      0.0000000      3.4460000     45.4250000     32.9840000
     25      4      4      0.0000000     48.5220000     25.9340000     45.8820000
     26      4      6      0.0000000     47.1860000     25.3640000     44.5690000
     27      4      6      0.0000000     50.4780000     27.9880000     46.2030000
     28      4      5      0.0000000     49.4680000     25.5290000     45.5890000
     29      4      4      0.0000000     48.6280000     27.4310000     45.7310000
     30      4      5      0.0000000     48.3210000     25.5300000     46.9190000
     31      4      5      0.0000000     48.4520000     27.7730000     44.7700000
     32      4      5      0.0000000     48.0970000     28.0530000     46.4840000
     33      5      4      0.0000000      7.1740000     24.5460000      3.0530000
     34      5      6      0.0000000      5.7650000     23.5820000      2.0120000
     35      5      6      0.0000000      9.3730000     23.5880000      1.2710000
     36      5      5      0.0000000      7.6140000     23.8490000      3.8180000
     37      5      4      0.0000000      8.3270000     24.9580000      2.1200000
     38      5      5      0.0000000      6.6650000     25.5030000      3.3820000
     39      5      5      0.0000000      7.8710000     25.5060000      1.2340000
     40      5      5      0.0000000      9.1100000     25.5040000      2.4950000
     41      6      4      0.0000000     29.8710000     16.7010000      3.4950000
     42      6      6      0.0000000     29.3190000     17.2150000      5.3090000
     43      6      6      0.0000000     27.7500000     14.7380000      3.0590000
     44      6      5      0.0000000     30.9220000     17.0070000      3.3950000
     45      6      4      0.0000000     29.6070000     15.2350000      3.1640000
     46      6      5      0.0000000     29.2880000     17.3410000      2.9000000
     47      6      5      0.0000000     29.8340000     15.0440000      2.1100000
     48      6      5      0.0000000     30.0430000     14.4840000      3.8260000
     49      7      4      0.0000000     31.2470000     40.6310000     15.9550000
     50      7      6      0.0000000     31.1220000     40.6090000     17.8930000
     51      7      6      0.0000000     32.3050000     39.4630000     13.4740000
     52      7      5      0.0000000     31.6810000     41.6230000     15.7950000
     53      7      4      0.0000000     32.1090000     39.4470000     15.4600000
     54      7      5      0.0000000     30.2400000     40.5310000     15.5830000
     55      7      5      0.0000000     33.0740000     39.4410000     15.9050000
     56      7      5      0.0000000     31.5280000     38.4710000     15.6400000
     57      8      4      0.0000000      1.5570000      2.6840000     32.1910000
     58      8      6      0.0000000      1.8990000      0.7440000     31.6400000
     59      8      6      0.0000000      2.6720000      5.5180000     32.2090000
     60      8      5      0.0000000      1.6170000      2.6840000     33.2980000
     61      8      4      0.0000000      2.6570000      3.6150000     31.5890000
     62      8      5      0.0000000      0.5450000      2.9510000     31.7300000
     63      8      5      0.0000000      3.7070000      3.1730000     31.7190000
     64      8      5      0.0000000      2.5720000      3.8290000     30.5500000
     65      9      4      0.0000000     18.4200000     41.7670000     25.5610000
     66      9      6      0.0000000     18.1110000     43.5130000     24.6060000
     67      9      6      0.0000000     18.9840000     39.6030000     23.5660000
     68      9      5      0.0000000     17.4580000     41.2480000     25.5260000
     69      9      4      0.0000000     19.5740000     41.0750000     24.7870000
     70      9      5      0.0000000     18.7250000     42.0770000     26.5730000
     71      9      5      0.0000000     20.0670000     41.7480000     24.0610000
     72      9      5      0.0000000     20.2510000     40.4590000     25.3930000
     73     10      4      0.0000000     45.9450000      0.7640000     42.4070000
     74     10      6      0.0000000     45.7510000     -0.5980000     43.8750000
     75     10      6      0.0000000     44.6240000      2.6240000     40.4220000
     76     10      5      0.0000000     46.2020000      0.1860000     41.4230000
     77     10      4      0.0000000     44.5690000      1.4970000     42.0850000
     78     10      5      0.0000000     46.7390000      1.4130000     42.8210000
     79     10      5      0.0000000     43.8190000      0.7970000     41.8850000
     80     10      5      0.0000000     44.2460000      2.1490000     42.9210000
     81     11      4      0.0000000     44.9210000     42.8030000     31.6160000
     82     11      6      0.0000000     45.0950000     41.5470000     30.1260000
     83     11      6      0.0000000     45.9470000     43.2990000     34.3620000
     84     11      5      0.0000000     44.0430000     42.4780000     32.1890000
     85     11      4      0.0000000     46.2110000     42.7410000     32.5370000
     86     11      5      0.0000000     44.7890000     43.7920000     31.1690000
     87     11      5      0.0000000     46.4680000     41.6210000     32.5890000
     88     11      5      0.0000000     47.0440000     43.3640000     32.1560000
     89     12      4      0.0000000      3.4280000     17.7870000     24.9450000
     90     12      6      0.0000000      3.3340000     17.1720000     23.0210000
     91     12      6      0.0000000      3.2840000     20.3720000     26.1370000
     92     12      5      0.0000000      4.4350000     18.1110000     25.1540000
     93     12      4      0.0000000      2.4860000     18.9490000     25.2040000
     94     12      5      0.0000000      3.2510000     16.8730000     25.4610000
     95     12      5      0.0000000      2.1930000     19.3030000     24.2420000
     96     12      5      0.0000000      1.6380000     18.7040000     25.7930000
     97     13      4      0.0000000     40.2500000     36.6100000     35.6490000
     98     13      6      0.0000000     41.9450000     35.6890000     35.1850000
     99     13      6      0.0000000     38.8220000     39.1460000     35.0840000
    100     13      5      0.0000000     40.3570000     36.8870000     36.6810000
    101     13      4      0.0000000     40.2260000     37.8370000     34.7210000
    102     13      5      0.0000000     39.4160000     35.8590000     35.5590000
    103     13      5      0.0000000     41.1590000     38.4540000     34.8490000
    104     13      5      0.0000000     40.0190000     37.4920000     33.7320000
    105     14      4      0.0000000     14.7880000      3.5640000     37.7290000
    106     14      6      0.0000000     15.6180000      5.3080000     37.6260000
    107     14      6      0.0000000     15.9760000      2.9030000     40.2330000
    108     14      5      0.0000000     14.5740000      3.3010000     36.7640000
    109     14      4      0.0000000     15.7500000      2.6170000     38.3440000
    110     14      5      0.0000000     13.8660000      3.7580000     38.2030000
    111     14      5      0.0000000     15.4340000      1.5900000     38.4000000
    112     14      5      0.0000000     16.7380000      2.7480000     37.7460000
    113     15      4      0.0000000      1.2440000      0.0250000     35.1940000
    114     15      6      0.0000000      2.2090000     -0.6200000     36.7780000
    115     15      6      0.0000000     -1.3500000      0.5040000     33.9260000
    116     15      5      0.0000000      1.5160000     -0.6720000     34.4230000
    117     15      4      0.0000000     -0.2610000     -0.0730000     35.4980000
    118     15      5      0.0000000      1.5370000      1.0390000     34.9000000
    119     15      5      0.0000000     -0.3830000     -1.1130000     35.8540000
    120     15      5      0.0000000     -0.3410000      0.6310000     36.3340000
    121     16      4      0.0000000     18.8170000     26.2440000      0.1170000
    122     16      6      0.0000000     19.2960000     28.0390000     -0.4210000
    123     16      6      0.0000000     18.4680000     23.6180000     -1.1280000
    124     16      5      0.0000000     18.2130000     26.4250000      1.0490000
    125     16      4      0.0000000     17.9810000     25.5540000     -0.9530000
    126     16      5      0.0000000     19.7440000     25.6690000      0.3030000
    127     16      5      0.0000000     16.9200000     25.5530000     -0.7080000
    128     16      5      0.0000000     18.1460000     26.0010000     -1.9590000
    129     17      4      0.0000000     32.5550000     48.2940000     30.2770000
    130     17      6      0.0000000     33.7090000     48.5080000     31.8930000
    131     17      6      0.0000000     30.8390000     46.5020000     28.7510000
    132     17      5      0.0000000     33.0000000     48.9210000     29.4620000
    133     17      4      0.0000000     32.4610000     46.8630000     29.7840000
    134     17      5      0.0000000     31.6860000     48.7380000     30.6680000
    135     17      5      0.0000000     33.2220000     46.7650000     29.0050000
    136     17      5      0.0000000     32.5070000     46.1520000     30.5960000
    137     18      4      0.0000000      4.1320000     33.6320000     47.2390000
    138     18      6      0.0000000      5.2130000     33.8800000     45.5880000
    139     18      6      0.0000000      3.8110000     35.7440000     49.2580000
    140     18      5      0.0000000      4.8520000     33.2770000     48.0260000
    141     18      4      0.0000000      3.3360000     34.8670000     47.5010000
    142     18      5      0.0000000      3.4140000     32.8260000     47.0180000
    143     18      5      0.0000000      3.6510000     35.6980000     46.8380000
    144     18      5      0.0000000      2.2540000     34.6450000     47.5960000
    145     19      4      0.0000000     42.6250000      4.9100000     43.0020000
    146     19      6      0.0000000     43.1250000      4.8610000     44.9240000
    147     19      6      0.0000000     39.8040000      5.3600000     42.1280000
    148     19      5      0.0000000     43.4810000      4.3730000     42.5370000
    149     19      4      0.0000000     41.2920000      4.2040000     42.7530000
    150     19      5      0.0000000     42.4700000      5.9570000     42.7230000
    151     19      5      0.0000000     41.2860000      3.5100000     41.8900000
    152     19      5      0.0000000     40.8210000      3.7220000     43.6350000
    153     20      4      0.0000000     24.2720000     12.7440000      4.8350000
    154     20      6      0.0000000     22.7040000     13.3260000      3.8050000
    155     20      6      0.0000000     25.5490000     10.4270000      3.6400000
    156     20      5      0.0000000     23.8390000     11.9470000      5.4940000
    157     20      4      0.0000000     25.3300000     12.3160000      3.8570000
    158     20      5      0.0000000     24.6220000     13.6130000      5.4440000
    159     20      5      0.0000000     25.1460000     12.7280000      2.8500000
    160     20      5      0.0000000     26.3770000     12.6050000      4.0950000
    161     21      4      0.0000000     13.7250000     45.1050000     34.8470000
    162     21      6      0.0000000     15.1920000     46.4270000     34.7880000
    163     21      6      0.0000000     11.7740000     43.3990000     36.1320000
    164     21      5      0.0000000     14.3710000     44.2490000     34.5770000
    165     21      4      0.0000000     13.0000000     45.0160000     36.1900000
    166     21      5      0.0000000     13.0850000     45.2640000     33.8670000
    167     21      5      0.0000000     13.6850000     44.7030000     36.9980000
    168     21      5      0.0000000     12.4720000     45.9510000     36.5200000
    169     22      4      0.0000000     44.8610000      6.1380000     38.7240000
    170     22      6      0.0000000     46.5430000      7.1320000     38.3540000
    171     22      6      0.0000000     42.0380000      6.2000000     39.2900000
    172     22      5      0.0000000     44.9840000      5.7670000     39.6880000
    173     22      4      0.0000000     43.6060000      7.0540000     38.5280000
    174     22      5      0.0000000     44.9250000      5.2820000     38.0760000
    175     22      5      0.0000000     43.7050000      8.0220000     39.0380000
    176     22      5      0.0000000     43.2650000      7.2050000     37.4640000
    177     23      4      0.0000000     19.6710000     44.4170000     48.8190000
    178     23      6      0.0000000     18.9110000     44.2630000     47.0410000
    179     23      6      0.0000000     22.3990000     43.9700000     49.0850000
    180     23      5      0.0000000     18.8120000     44.2560000     49.4620000
    181     23      4      0.0000000     20.6690000     43.3100000     49.0180000
    182     23      5      0.0000000     20.0020000     45.4450000     48.8390000
    183     23      5      0.0000000     20.6950000     42.8960000     49.9970000
    184     23      5      0.0000000     20.4940000     42.4440000     48.3270000
    185     24      4      0.0000000     17.4010000     27.8800000     34.5910000
    186     24      6      0.0000000     16.3790000     28.6910000     33.1140000
    187     24      6      0.0000000     19.1910000     28.2720000     36.7950000
    188     24      5      0.0000000     17.8500000     26.8720000     34.2910000
    189     24      4      0.0000000     18.4440000     28.9020000     35.0880000
    190     24      5      0.0000000     16.6340000     27.6470000     35.2510000
    191     24      5      0.0000000     19.3130000     29.1420000     34.4690000
    192     24      5      0.0000000     17.9640000     29.8530000     35.3660000
    193     25      4      0.0000000     12.9000000     42.2770000     41.9790000
    194     25      6      0.0000000     14.3370000     41.6060000     40.8890000
    195     25      6      0.0000000     11.8420000     44.8160000     41.3150000
    196     25      5      0.0000000     12.7710000     41.6100000     42.8670000
    197     25      4      0.0000000     13.0890000     43.7710000     42.4110000
    198     25      5      0.0000000     12.0710000     42.1860000     41.2680000
    199     25      5      0.0000000     12.7890000     43.9480000     43.3470000
    200     25      5      0.0000000     14.0190000     44.2030000     42.1960000
    201     26      4      0.0000000     18.4850000      3.1300000     43.3530000
    202     26      6      0.0000000     18.9440000      4.8300000     44.1820000
    203     26      6      0.0000000     17.0910000      0.6830000     43.3730000
    204     26      5      0.0000000     19.4190000      2.6170000     43.4550000
    205     26      4      0.0000000     17.3050000      2.5210000     44.0270000
    206     26      5      0.0000000     18.3120000      3.3860000     42.3410000
    207     26      5      0.0000000     17.5740000      2.3670000     45.0610000
    208     26      5      0.0000000     16.3220000      3.0420000     43.9810000
    209     27      4      0.0000000     17.4940000     22.5420000     36.7200000
    210     27      6      0.0000000     15.5860000     22.3580000     36.5010000
    211     27      6      0.0000000     17.5260000     23.4170000     39.5090000
    212     27      5      0.0000000     17.7760000     22.8190000     35.7310000
    213     27      4      0.0000000     17.9180000     23.7240000     37.6450000
    214     27      5      0.0000000     17.8970000     21.5390000     36.9860000
    215     27      5      0.0000000     19.0480000     23.9220000     37.6400000
    216     27      5      0.0000000     17.3340000     24.6190000     37.5020000
    217     28      4      0.0000000     12.7880000     34.0470000     37.0970000
    218     28      6      0.0000000     11.0540000     34.6330000     37.9210000
    219     28      6      0.0000000     14.2460000     32.1460000     35.3820000
    220     28      5      0.0000000     13.3780000     33.8160000     38.0420000
    221     28      4      0.0000000     12.5430000     32.7920000     36.1760000
    222     28      5      0.0000000     13.1070000     34.9070000     36.4920000
    223     28      5      0.0000000     12.2040000     31.9410000     36.8030000
    224     28      5      0.0000000     12.0090000     32.9960000     35.2390000
    225     29      4      0.0000000     36.5790000     13.7970000      0.5040000
    226     29      6      0.0000000     38.2590000     13.6970000     -0.5990000
    227     29      6      0.0000000     34.7170000     15.3520000      2.0320000
    228     29      5      0.0000000     36.8160000     13.2400000      1.4710000
    229     29      4      0.0000000     36.2070000     15.2280000      0.7670000
    230     29      5      0.0000000     35.8460000     13.2090000     -0.1240000
    231     29      5      0.0000000     36.9050000     15.8280000      1.3210000
    232     29      5      0.0000000     35.9730000     15.8230000     -0.1180000
    233     30      4      0.0000000      4.5090000     10.1990000     43.9020000
    234     30      6      0.0000000      3.7480000      8.4020000     44.3220000
    235     30      6      0.0000000      5.5580000     12.0370000     41.9970000
    236     30      5      0.0000000      5.0320000     10.4810000     44.8680000
    237     30      4      0.0000000      5.3610000     10.1720000     42.6860000
    238     30      5      0.0000000      3.6770000     10.8620000     43.7070000
    239     30      5      0.0000000      6.4050000      9.8380000     42.9610000
    240     30      5      0.0000000      4.9390000      9.4940000     41.9520000
    241     31      4      0.0000000     31.6340000     29.2800000      8.8890000
    242     31      6      0.0000000     30.5640000     30.6030000     10.0150000
    243     31      6      0.0000000     33.3770000     27.0650000      9.1680000
    244     31      5      0.0000000     32.6450000     29.6510000      8.9540000
    245     31      4      0.0000000     31.6380000     27.8430000      9.4540000
    246     31      5      0.0000000     31.2080000     29.3070000      7.9030000
    247     31      5      0.0000000     31.5430000     27.8740000     10.4870000
    248     31      5      0.0000000     31.0260000     27.1520000      8.8340000
    249     32      4      0.0000000     10.1730000     12.2660000     30.8480000
    250     32      6      0.0000000     10.1510000     14.2010000     30.8140000
    251     32      6      0.0000000      7.8960000     11.9740000     29.0070000
    252     32      5      0.0000000      9.5400000     11.9550000     31.5950000
    253     32      4      0.0000000      9.7870000     11.7360000     29.4100000
    254     32      5      0.0000000     11.2410000     11.9920000     31.0750000
    255     32      5      0.0000000     10.3290000     12.2750000     28.6470000
    256     32      5      0.0000000      9.9950000     10.6640000     29.4370000
    257     33      4      0.0000000      9.6650000      8.3360000     35.8990000
    258     33      6      0.0000000     10.6050000      9.0760000     34.2520000
    259     33      6      0.0000000      6.9180000      7.8610000     37.0840000
    260     33      5      0.0000000     10.2150000      8.7350000     36.7470000
    261     33      4      0.0000000      8.1270000      8.8820000     35.9030000
    262     33      5      0.0000000      9.7950000      7.2610000     35.9140000
    263     33      5      0.0000000      8.0700000     10.0020000     35.9710000
    264     33      5      0.0000000      7.6910000      8.6340000     34.8910000
    265     34      4      0.0000000     32.1870000      8.8320000     31.3460000
    266     34      6      0.0000000     33.2860000      7.2970000     30.8710000
    267     34      6      0.0000000     30.1080000     10.7650000     30.6070000
    268     34      5      0.0000000     32.6640000      9.4910000     32.0680000
    269     34      4      0.0000000     31.5810000      9.5820000     30.0680000
    270     34      5      0.0000000     31.3450000      8.4390000     31.9950000
    271     34      5      0.0000000     32.3470000     10.2190000     29.5510000
    272     34      5      0.0000000     31.1220000      8.8270000     29.3730000
    273     35      4      0.0000000     25.6780000     24.0920000     10.8600000
    274     35      6      0.0000000     23.8270000     24.5220000     11.3410000
    275     35      6      0.0000000     28.1130000     25.5610000     11.1990000
    276     35      5      0.0000000     25.8090000     24.5880000      9.8710000
    277     35      4      0.0000000     26.6360000     24.5510000     11.9140000
    278     35      5      0.0000000     25.7300000     23.0340000     10.8800000
    279     35      5      0.0000000     26.1450000     25.2520000     12.5560000
    280     35      5      0.0000000     26.9530000     23.7360000     12.5650000
    281     36      4      0.0000000     33.8820000      4.6030000     48.4690000
    282     36      6      0.0000000     32.3660000      5.6130000     47.6580000
    283     36      6      0.0000000     34.8520000      1.9960000     49.4320000
    284     36      5      0.0000000     34.0650000      5.3760000     49.2790000
    285     36      4      0.0000000     33.4180000      3.2660000     49.1490000
    286     36      5      0.0000000     34.6260000      4.4970000     47.5520000
    287     36      5      0.0000000     33.0720000      3.4630000     50.1270000
    288     36      5      0.0000000     32.6020000      2.7290000     48.6160000
    289     37      4      0.0000000     46.6200000      1.6360000      2.3690000
    290     37      6      0.0000000     47.1970000      1.2070000      0.5510000
    291     37      6      0.0000000     44.4120000      1.4410000      4.3820000
    292     37      5      0.0000000     47.0790000      2.6140000      2.5310000
    293     37      4      0.0000000     45.1210000      1.4960000      2.5580000
    294     37      5      0.0000000     47.2200000      0.8400000      2.9400000
    295     37      5      0.0000000     44.5770000      2.3220000      2.0380000
    296     37      5      0.0000000     44.8180000      0.5790000      2.0530000
    297     38      4      0.0000000     32.4500000     33.6370000     17.5470000
    298     38      6      0.0000000     34.2850000     33.7390000     18.2270000
    299     38      6      0.0000000     31.0570000     36.2650000     17.2330000
    300     38      5      0.0000000     32.2450000     32.5590000     17.8900000
    301     38      4      0.0000000     31.5230000     34.6490000     18.2390000
    302     38      5      0.0000000     32.5970000     33.9140000     16.5310000
    303     38      5      0.0000000     30.5330000     34.2800000     18.4960000
    304     38      5      0.0000000     31.8940000     35.0850000     19.1710000
    305     39      4      0.0000000      8.8650000     47.9030000     14.4160000
    306     39      6      0.0000000     10.8060000     47.5700000     14.6020000
    307     39      6      0.0000000      6.3530000     47.5220000     15.8240000
    308     39      5      0.0000000      8.8030000     47.5550000     13.3700000
    309     39      4      0.0000000      8.2230000     46.9200000     15.4760000
    310     39      5      0.0000000      8.6390000     48.9610000     14.6070000
    311     39      5      0.0000000      8.2100000     45.8650000     15.1480000
    312     39      5      0.0000000      8.7420000     47.1160000     16.4450000
    313     40      4      0.0000000     37.9980000     13.5430000      7.5980000
    314     40      6      0.0000000     38.3340000     11.6990000      8.3590000
    315     40      6      0.0000000     36.6180000     15.5700000      6.1030000
    316     40      5      0.0000000     39.0300000     13.9140000      7.2770000
    317     40      4      0.0000000     36.7800000     13.6760000      6.5920000
    318     40      5      0.0000000     37.8130000     14.1680000      8.4710000
    319     40      5      0.0000000     37.0170000     13.3240000      5.5900000
    320     40      5      0.0000000     35.7810000     13.4250000      6.9790000
    321     41      4      0.0000000     17.9420000     25.0560000     28.2160000
    322     41      6      0.0000000     19.6290000     24.2370000     27.6700000
    323     41      6      0.0000000     16.3860000     26.1760000     30.2950000
    324     41      5      0.0000000     17.1930000     24.3350000     28.2540000
    325     41      4      0.0000000     18.2030000     25.6840000     29.6380000
    326     41      5      0.0000000     17.7500000     25.8250000     27.4280000
    327     41      5      0.0000000     18.5190000     25.0200000     30.4320000
    328     41      5      0.0000000     18.9420000     26.4830000     29.5490000
    329     42      4      0.0000000     33.6040000     38.3590000      1.2370000
    330     42      6      0.0000000     31.9680000     38.8630000      0.3520000
    331     42      6      0.0000000     35.8820000     39.1990000      2.8030000
    332     42      5      0.0000000     34.0600000     37.5900000      0.5570000
    333     42      4      0.0000000     34.4780000     39.5840000      1.5350000
    334     42      5      0.0000000     33.2550000     37.8580000      2.1000000
    335     42      5      0.0000000     35.0400000     39.8540000      0.6150000
    336     42      5      0.0000000     33.8960000     40.4500000      1.8500000
    337     43      4      0.0000000     20.7540000     28.5020000     19.4400000
    338     43      6      0.0000000     19.9730000     30.2800000     18.8300000
    339     43      6      0.0000000     21.8380000     25.9730000     18.9420000
    340     43      5      0.0000000     19.9580000     28.0430000     20.0760000
    341     43      4      0.0000000     21.1850000     27.6180000     18.2680000
    342     43      5      0.0000000     21.6450000     28.7240000     20.0530000
    343     43      5      0.0000000     20.3630000     27.4610000     17.5480000
    344     43      5      0.0000000     22.0120000     28.0440000     17.7140000
    345     44      4      0.0000000     26.7690000     50.0260000     26.8600000
    346     44      6      0.0000000     26.5650000     49.1250000     25.0920000
    347     44      6      0.0000000     28.4070000     50.6690000     29.0980000
    348     44      5      0.0000000     26.1200000     49.4280000     27.4770000
    349     44      4      0.0000000     28.1660000     49.9910000     27.2890000
    350     44      5      0.0000000     26.3010000     51.0460000     26.7570000
    351     44      5      0.0000000     28.5850000     49.0280000     27.2590000
    352     44      5      0.0000000     28.7540000     50.6440000     26.6500000
    353     45      4      0.0000000      2.9720000     21.0270000      6.1000000
    354     45      6      0.0000000      3.3810000     22.1770000      4.5830000
    355     45      6      0.0000000      0.1790000     21.0590000      5.5420000
    356     45      5      0.0000000      2.5830000     21.6130000      6.8660000
    357     45      4      0.0000000      1.8570000     20.0830000      5.6310000
    358     45      5      0.0000000      3.8750000     20.4750000      6.3120000
    359     45      5      0.0000000      2.0050000     19.7790000      4.5950000
    360     45      5      0.0000000      1.7630000     19.2530000      6.3450000
    361     46      4      0.0000000      8.7520000     14.2770000     26.6700000