LAMMPS description

       8          atoms
       7          bonds
      12         angles
       9      dihedrals
       0      impropers

       6     atom types
       6     bond types
       8    angle types
       6 dihedral types
       0 improper types


  0.0000000      20.000000     xlo xhi
  0.0000000      20.000000     ylo yhi
  0.0000000      20.000000     zlo zhi

 Atoms

      1      1      4      0.0000000      9.3390000     10.0000000     10.2130000
      2      1      6      0.0000000      8.4740000      8.3970000      9.4940000
      3      1      6      0.0000000     11.5260000     11.6030000     10.5060000
      4      1      5      0.0000000      9.1610000     10.0000000     11.3090000
      5      1      4      0.0000000     10.8510000     10.0000000      9.9250000
      6      1      5      0.0000000      8.6740000     10.8000000     10.0000000
      7      1      5      0.0000000     11.3290000      9.1000000     10.3670000
      8      1      5      0.0000000     11.0420000     10.0000000      8.8310000

 Bonds

       1       6       1       2
       2       5       1       4
       3       4       1       5
       4       5       1       6
       5       6       3       5
       6       5       5       7
       7       5       5       8

 Angles

       1       8       2       1       4
       2       6       2       1       5
       3       8       2       1       6
       4       5       4       1       5
       5       7       4       1       6
       6       5       5       1       6
       7       6       1       5       3
       8       5       1       5       7
       9       5       1       5       8
      10       8       3       5       7
      11       8       3       5       8
      12       7       7       5       8

 Dihedrals

       1       6       2       1       5       3
       2       5       2       1       5       7
       3       5       2       1       5       8
       4       5       4       1       5       3
       5       4       4       1       5       7
       6       4       4       1       5       8
       7       5       6       1       5       3
       8       4       6       1       5       7
       9       4       6       1       5       8
