LAMMPS description

       8          atoms
       7          bonds
      12         angles
       9      dihedrals
       0      impropers

       6     atom types
       6     bond types
       8    angle types
       6 dihedral types
       0 improper types


  0.0000000      20.000000     xlo xhi
  0.0000000      20.000000     ylo yhi
  0.0000000      20.000000     zlo zhi

 Atoms

      1      1      1      0.0000000      9.3390000     10.0000000     10.2130000
      2      1      3      0.0000000      8.4740000      8.3970000      9.4940000
      3      1      3      0.0000000     11.5260000     11.6030000     10.5060000
      4      1      2      0.0000000      9.1610000     10.0000000     11.3090000
      5      1      1      0.0000000     10.8510000     10.0000000      9.9250000
      6      1      2      0.0000000      8.6740000     10.8000000     10.0000000
      7      1      2      0.0000000     11.3290000      9.1000000     10.3670000
      8      1      2      0.0000000     11.0420000     10.0000000      8.8310000

 Bonds

       1       3       1       2
       2       2       1       4
       3       1       1       5
       4       2       1       6
       5       3       3       5
       6       2       5       7
       7       2       5       8

 Angles

       1       4       2       1       4
       2       2       2       1       5
       3       4       2       1       6
       4       1       4       1       5
       5       3       4       1       6
       6       1       5       1       6
       7       2       1       5       3
       8       1       1       5       7
       9       1       1       5       8
      10       4       3       5       7
      11       4       3       5       8
      12       3       7       5       8

 Dihedrals

       1       3       2       1       5       3
       2       2       2       1       5       7
       3       2       2       1       5       8
       4       2       4       1       5       3
       5       1       4       1       5       7
       6       1       4       1       5       8
       7       2       6       1       5       3
       8       1       6       1       5       7
       9       1       6       1       5       8
