LAMMPS description

    9200          atoms
    8050          bonds
   13800         angles
   10350      dihedrals
       0      impropers

       6     atom types
       6     bond types
       8    angle types
       6 dihedral types
       0 improper types


  0.0000000      54.188000     xlo xhi
  0.0000000      54.188000     ylo yhi
  0.0000000      54.188000     zlo zhi

 Atoms

      1      1      1      0.0000000      6.2640000     32.3600000     32.0980000
      2      1      3      0.0000000      4.9850000     31.1570000     32.3420000
      3      1      3      0.0000000      7.4120000     34.4310000     33.5360000
      4      1      2      0.0000000      5.6690000     33.1290000     31.5610000
      5      1      1      0.0000000      6.7350000     32.7660000     33.4780000
      6      1      2      0.0000000      7.0390000     31.8760000     31.4980000
      7      1      2      0.0000000      5.8700000     32.6680000     34.1240000
      8      1      2      0.0000000      7.5680000     32.2210000     33.8700000
      9      2      1      0.0000000     15.8980000     15.9420000      8.4480000
     10      2      3      0.0000000     16.0050000     14.2220000      8.7660000
     11      2      3      0.0000000     17.0480000     16.5440000     10.6610000
     12      2      2      0.0000000     15.1440000     16.1310000      7.6310000
     13      2      1      0.0000000     15.5950000     16.7300000      9.6410000
     14      2      2      0.0000000     16.8860000     16.2790000      8.0940000
     15      2      2      0.0000000     15.6420000     17.7860000      9.4960000
     16      2      2      0.0000000     14.7160000     16.3400000     10.1550000
     17      3      1      0.0000000     22.4330000     16.0530000     38.2830000
     18      3      3      0.0000000     21.7480000     17.2790000     39.4490000
     19      3      3      0.0000000     24.5610000     15.5120000     36.4450000
     20      3      2      0.0000000     21.9900000     16.1980000     37.3410000
     21      3      1      0.0000000     23.9630000     16.2850000     37.9680000
     22      3      2      0.0000000     22.2060000     15.0430000     38.7420000
     23      3      2      0.0000000     24.1880000     17.3630000     37.8850000
     24      3      2      0.0000000     24.5660000     15.8570000     38.7870000
     25      4      1      0.0000000     53.7260000      0.2180000     31.0610000
     26      4      3      0.0000000     54.5450000     -0.5160000     29.6170000
     27      4      3      0.0000000     53.5090000      2.5110000     29.4430000
     28      4      2      0.0000000     54.4820000      0.3320000     31.8880000
     29      4      1      0.0000000     52.9360000      1.5690000     30.8270000
     30      4      2      0.0000000     52.9640000     -0.4890000     31.3260000
     31      4      2      0.0000000     51.7990000      1.4530000     30.7140000
     32      4      2      0.0000000     53.1370000      2.1100000     31.7630000
     33      5      1      0.0000000     53.8690000     45.7260000     49.3960000
     34      5      3      0.0000000     55.3200000     46.5730000     49.9040000
     35      5      3      0.0000000     52.7380000     43.6530000     48.0250000
     36      5      2      0.0000000     53.2340000     46.6010000     49.0140000
     37      5      1      0.0000000     54.1210000     44.7770000     48.2950000
     38      5      2      0.0000000     53.4150000     45.1710000     50.2470000
     39      5      2      0.0000000     54.3310000     45.3520000     47.3460000
     40      5      2      0.0000000     54.9550000     44.0880000     48.6000000
     41      6      1      0.0000000      1.9100000     19.6390000     12.3820000
     42      6      3      0.0000000      1.1330000     18.1880000     13.1180000
     43      6      3      0.0000000      4.1270000     20.9750000     11.6100000
     44      6      2      0.0000000      1.4130000     20.5040000     12.8710000
     45      6      1      0.0000000      3.4190000     19.5980000     12.5400000
     46      6      2      0.0000000      1.7090000     19.6580000     11.2610000
     47      6      2      0.0000000      3.7160000     19.7560000     13.5900000
     48      6      2      0.0000000      3.7000000     18.6140000     12.1440000
     49      7      1      0.0000000     21.9190000     29.0060000     49.2330000
     50      7      3      0.0000000     23.4250000     29.8390000     49.3230000
     51      7      3      0.0000000     19.3730000     28.8690000     50.3080000
     52      7      2      0.0000000     21.9310000     28.0060000     49.5880000
     53      7      1      0.0000000     20.9080000     29.7740000     49.9730000
     54      7      2      0.0000000     21.6430000     29.0070000     48.1690000
     55      7      2      0.0000000     21.3430000     30.2170000     50.9320000
     56      7      2      0.0000000     20.4910000     30.5860000     49.3270000
     57      8      1      0.0000000      2.2290000     44.5960000     25.1200000
     58      8      3      0.0000000      0.8560000     43.5730000     25.5100000
     59      8      3      0.0000000      3.2580000     47.1770000     25.2660000
     60      8      2      0.0000000      2.1820000     44.6320000     24.0260000
     61      8      1      0.0000000      2.0220000     45.9790000     25.7270000
     62      8      2      0.0000000      3.0680000     44.0940000     25.4620000
     63      8      2      0.0000000      1.0430000     46.4770000     25.3490000
     64      8      2      0.0000000      2.0130000     45.8230000     26.8110000
     65      9      1      0.0000000     27.7250000     31.6110000     20.6200000
     66      9      3      0.0000000     27.8310000     33.3110000     21.2150000
     67      9      3      0.0000000     26.0860000     31.8980000     18.3560000
     68      9      2      0.0000000     26.8320000     31.0990000     20.9660000
     69      9      1      0.0000000     27.6870000     31.6210000     19.0480000
     70      9      2      0.0000000     28.6600000     31.0800000     20.8630000
     71      9      2      0.0000000     28.2580000     32.4690000     18.6660000
     72      9      2      0.0000000     28.0620000     30.7320000     18.6050000
     73     10      1      0.0000000     38.7030000     25.9300000     28.0520000
     74     10      3      0.0000000     39.7260000     27.3450000     28.4670000
     75     10      3      0.0000000     40.9850000     24.3070000     27.8340000
     76     10      2      0.0000000     38.6210000     25.8830000     26.9190000
     77     10      1      0.0000000     39.3480000     24.5640000     28.4450000
     78     10      2      0.0000000     37.7040000     26.0880000     28.4790000
     79     10      2      0.0000000     39.5770000     24.4840000     29.5670000
     80     10      2      0.0000000     38.7650000     23.6900000     28.1870000
     81     11      1      0.0000000      7.3580000     40.6930000     16.7950000
     82     11      3      0.0000000      8.2390000     41.4560000     15.4610000
     83     11      3      0.0000000      5.3900000     39.0880000     15.5920000
     84     11      2      0.0000000      6.5100000     41.3940000     17.0970000
     85     11      1      0.0000000      6.9400000     39.2610000     16.4580000
     86     11      2      0.0000000      8.1290000     40.6390000     17.6320000
     87     11      2      0.0000000      7.7030000     38.6020000     15.9970000
     88     11      2      0.0000000      6.6840000     38.8060000     17.3890000
     89     12      1      0.0000000      5.3100000      0.6510000     46.9130000
     90     12      3      0.0000000      6.3090000      2.1300000     46.7260000
     91     12      3      0.0000000      3.6760000     -0.6900000     48.6880000
     92     12      2      0.0000000      6.0860000     -0.1250000     46.9920000
     93     12      1      0.0000000      4.5420000      0.9060000     48.2460000
     94     12      2      0.0000000      4.6380000      0.5080000     46.0400000
     95     12      2      0.0000000      5.2230000      1.0460000     49.0930000
     96     12      2      0.0000000      3.7280000      1.6110000     48.1150000
     97     13      1      0.0000000     25.6640000     42.7190000     21.0280000
     98     13      3      0.0000000     26.3260000     41.5100000     22.1600000
     99     13      3      0.0000000     28.0830000     44.0020000     20.8420000
    100     13      2      0.0000000     25.2530000     43.5370000     21.6450000
    101     13      1      0.0000000     26.6750000     43.3570000     20.0320000
    102     13      2      0.0000000     24.8130000     42.1950000     20.5910000
    103     13      2      0.0000000     27.0360000     42.6940000     19.2710000
    104     13      2      0.0000000     26.1970000     44.2330000     19.4980000
    105     14      1      0.0000000     38.2970000     40.5360000     31.6650000
    106     14      3      0.0000000     36.5750000     40.4720000     31.9990000
    107     14      3      0.0000000     38.0640000     38.2590000     30.0320000
    108     14      2      0.0000000     38.8190000     40.9640000     32.5060000
    109     14      1      0.0000000     38.8770000     39.0900000     31.4110000
    110     14      2      0.0000000     38.4060000     41.0560000     30.6780000
    111     14      2      0.0000000     39.9420000     39.0430000     31.1700000
    112     14      2      0.0000000     38.6720000     38.3890000     32.2060000
    113     15      1      0.0000000     13.7430000     17.6290000     13.4990000
    114     15      3      0.0000000     13.8370000     15.8900000     13.8160000
    115     15      3      0.0000000     12.1130000     19.7510000     12.7310000
    116     15      2      0.0000000     14.1500000     17.6630000     12.4530000
    117     15      1      0.0000000     12.2100000     18.1530000     13.4870000
    118     15      2      0.0000000     14.2830000     18.2560000     14.2110000
    119     15      2      0.0000000     11.6370000     17.4630000     12.8370000
    120     15      2      0.0000000     11.7580000     18.0660000     14.5130000
    121     16      1      0.0000000     52.1580000     27.8890000     15.5410000
    122     16      3      0.0000000     51.4790000     27.7440000     17.1670000
    123     16      3      0.0000000     53.7350000     30.3070000     15.3040000
    124     16      2      0.0000000     51.4630000     28.5150000     14.9500000
    125     16      1      0.0000000     53.6060000     28.5310000     15.5280000
    126     16      2      0.0000000     52.2300000     26.8220000     15.1180000
    127     16      2      0.0000000     54.1150000     28.2290000     16.5150000
    128     16      2      0.0000000     54.2320000     28.2110000     14.6440000
    129     17      1      0.0000000     45.1430000     18.1890000     27.3910000
    130     17      3      0.0000000     45.2370000     19.9460000     27.8120000
    131     17      3      0.0000000     46.0680000     16.2010000     25.7510000
    132     17      2      0.0000000     44.1530000     17.9630000     27.1040000
    133     17      1      0.0000000     46.1580000     17.9340000     26.2560000
    134     17      2      0.0000000     45.3400000     17.5960000     28.2700000
    135     17      2      0.0000000     45.9250000     18.5440000     25.3490000
    136     17      2      0.0000000     47.1720000     17.9560000     26.5740000
    137     18      1      0.0000000     38.7860000     51.6850000     52.6260000
    138     18      3      0.0000000     39.3460000     52.4500000     51.1300000
    139     18      3      0.0000000     41.1710000     50.4740000     53.4770000
    140     18      2      0.0000000     38.4280000     50.6540000     52.4220000
    141     18      1      0.0000000     40.0400000     51.7770000     53.6130000
    142     18      2      0.0000000     37.9010000     52.2880000     52.9360000
    143     18      2      0.0000000     40.5340000     52.7680000     53.5610000
    144     18      2      0.0000000     39.6810000     51.6880000     54.6830000
    145     19      1      0.0000000     32.8410000     52.9870000     42.3380000
    146     19      3      0.0000000     34.2530000     54.0230000     42.9310000
    147     19      3      0.0000000     31.6800000     51.6930000     40.2910000
    148     19      2      0.0000000     32.0590000     53.6980000     42.0320000
    149     19      1      0.0000000     33.2330000     52.1980000     41.1350000
    150     19      2      0.0000000     32.4520000     52.3180000     43.1190000
    151     19      2      0.0000000     33.7740000     52.7710000     40.4010000
    152     19      2      0.0000000     33.7380000     51.3040000     41.4330000
    153     20      1      0.0000000      4.9540000     28.7230000     27.8500000
    154     20      3      0.0000000      6.3410000     29.4990000     27.0780000
    155     20      3      0.0000000      3.4740000     28.7290000     30.2640000
    156     20      2      0.0000000      5.4030000     27.7050000     28.0450000
    157     20      1      0.0000000      4.7780000     29.4660000     29.2210000
    158     20      2      0.0000000      4.1890000     28.7880000     27.0770000
    159     20      2      0.0000000      5.7330000     29.6430000     29.7270000
    160     20      2      0.0000000      4.3560000     30.4620000     29.0560000
    161     21      1      0.0000000     19.8090000      1.1930000     47.4550000
    162     21      3      0.0000000     21.0690000      2.3820000     47.2750000
    163     21      3      0.0000000     18.1330000     -0.3240000     48.7980000
    164     21      2      0.0000000     20.4010000      0.2610000     47.5100000
    165     21      1      0.0000000     18.9510000      1.3110000     48.6830000
    166     21      2      0.0000000     19.2520000      1.2290000     46.4360000
    167     21      2      0.0000000     19.5690000      1.3750000     49.6120000
    168     21      2      0.0000000     18.1110000      1.9840000     48.5240000
    169     22      1      0.0000000     44.8090000     42.8800000      2.0690000
    170     22      3      0.0000000     44.0880000     44.2850000      2.9690000
    171     22      3      0.0000000     47.0950000     42.1140000      3.4820000
    172     22      2      0.0000000     44.2820000     42.8500000      1.0800000
    173     22      1      0.0000000     46.4000000     42.9500000      2.0520000
    174     22      2      0.0000000     44.4260000     42.0510000      2.6870000
    175     22      2      0.0000000     46.8130000     42.4190000      1.2010000
    176     22      2      0.0000000     46.7460000     43.9610000      2.0000000
    177     23      1      0.0000000     30.2900000      8.3080000     19.8500000
    178     23      3      0.0000000     29.8810000      9.5390000     21.0850000
    179     23      3      0.0000000     29.2010000      9.1540000     17.6160000
    180     23      2      0.0000000     30.6840000      7.4340000     20.3700000
    181     23      1      0.0000000     29.1010000      7.9700000     18.9280000
    182     23      2      0.0000000     31.1650000      8.7350000     19.2100000
    183     23      2      0.0000000     29.2390000      6.9740000     18.3890000
    184     23      2      0.0000000     28.0860000      8.2080000     19.3030000
    185     24      1      0.0000000     20.1750000     44.8490000     25.6810000
    186     24      3      0.0000000     21.3920000     44.1770000     24.5600000
    187     24      3      0.0000000     19.3530000     45.1020000     28.2600000
    188     24      2      0.0000000     19.5110000     43.9480000     25.6540000
    189     24      1      0.0000000     20.6670000     45.0120000     27.1290000
    190     24      2      0.0000000     19.6870000     45.7590000     25.2970000
    191     24      2      0.0000000     21.2020000     44.1150000     27.4510000
    192     24      2      0.0000000     21.3010000     45.8640000     27.2980000
    193     25      1      0.0000000      2.7310000      5.7320000     24.7340000
    194     25      3      0.0000000      2.1270000      4.3160000     23.7770000
    195     25      3      0.0000000      4.7250000      4.2930000     26.0310000
    196     25      2      0.0000000      1.8040000      6.3450000     24.8690000
    197     25      1      0.0000000      3.2110000      5.2040000     26.1380000
    198     25      2      0.0000000      3.4890000      6.3190000     24.2300000
    199     25      2      0.0000000      3.1250000      5.9030000     26.9190000
    200     25      2      0.0000000      2.5810000      4.3250000     26.3340000
    201     26      1      0.0000000     51.9030000     19.5330000     22.8160000
    202     26      3      0.0000000     53.1340000     19.4550000     24.1100000
    203     26      3      0.0000000     49.6590000     20.6480000     21.7030000
    204     26      2      0.0000000     51.3770000     18.5820000     22.9500000
    205     26      1      0.0000000     50.8450000     20.5830000     23.0700000
    206     26      2      0.0000000     52.4230000     19.5610000     21.8610000
    207     26      2      0.0000000     50.1860000     20.2900000     23.9260000
    208     26      2      0.0000000     51.2250000     21.6240000     23.1200000
    209     27      1      0.0000000     31.4680000      8.5710000     14.9610000
    210     27      3      0.0000000     33.2320000      8.2840000     14.7020000
    211     27      3      0.0000000     31.4640000      5.7800000     14.4750000
    212     27      2      0.0000000     31.0480000      8.8060000     13.9410000
    213     27      1      0.0000000     30.8480000      7.2060000     15.4120000
    214     27      2      0.0000000     31.2500000      9.4900000     15.5970000
    215     27      2      0.0000000     31.0340000      7.0960000     16.5300000
    216     27      2      0.0000000     29.7670000      7.1200000     15.1370000
    217     28      1      0.0000000     15.6830000     41.1450000     41.1710000
    218     28      3      0.0000000     13.9590000     40.6360000     41.4990000
    219     28      3      0.0000000     17.8940000     40.6510000     39.5910000
    220     28      2      0.0000000     16.1220000     41.5840000     42.0870000
    221     28      1      0.0000000     16.3950000     40.0660000     40.3280000
    222     28      2      0.0000000     15.5810000     41.9850000     40.4530000
    223     28      2      0.0000000     16.7100000     39.1580000     40.8050000
    224     28      2      0.0000000     15.7210000     39.7810000     39.5640000
    225     29      1      0.0000000     32.2480000     40.1150000     17.6670000
    226     29      3      0.0000000     32.8090000     38.5670000     18.4690000
    227     29      3      0.0000000     32.5680000     42.5260000     16.6820000
    228     29      2      0.0000000     31.4950000     40.6480000     18.3620000
    229     29      1      0.0000000     33.3200000     41.1070000     17.4290000
    230     29      2      0.0000000     31.5500000     39.8440000     16.8470000
    231     29      2      0.0000000     33.8230000     41.2410000     18.3260000
    232     29      2      0.0000000     34.0310000     40.6380000     16.6510000
    233     30      1      0.0000000      0.5980000     35.1690000     53.9570000
    234     30      3      0.0000000     -0.2090000     34.9810000     55.5790000
    235     30      3      0.0000000      1.3400000     33.5110000     51.9130000
    236     30      2      0.0000000      1.1710000     36.1350000     53.8470000
    237     30      1      0.0000000      1.5170000     33.9480000     53.6220000
    238     30      2      0.0000000     -0.2080000     35.2570000     53.1530000
    239     30      2      0.0000000      2.5790000     34.2740000     53.7280000
    240     30      2      0.0000000      1.2440000     33.0970000     54.1800000
    241     31      1      0.0000000     13.8310000     34.1050000     15.2110000
    242     31      3      0.0000000     15.5790000     34.5560000     15.2670000
    243     31      3      0.0000000     11.7750000     34.0010000     13.4540000
    244     31      2      0.0000000     13.4020000     34.1850000     16.2070000
    245     31      1      0.0000000     13.0750000     34.9710000     14.1750000
    246     31      2      0.0000000     13.9120000     33.0300000     14.8430000
    247     31      2      0.0000000     12.6430000     35.8270000     14.7260000
    248     31      2      0.0000000     13.7130000     35.3730000     13.3840000
    249     32      1      0.0000000     32.1630000     29.8830000     52.6440000
    250     32      3      0.0000000     31.0620000     31.2410000     52.6940000
    251     32      3      0.0000000     32.9940000     30.0960000     50.1190000
    252     32      2      0.0000000     31.5620000     29.1220000     52.2070000
    253     32      1      0.0000000     33.3960000     30.1960000     51.8410000
    254     32      2      0.0000000     32.4540000     29.6770000     53.6670000
    255     32      2      0.0000000     33.7210000     31.1950000     52.0640000
    256     32      2      0.0000000     34.1790000     29.4810000     52.0840000
    257     33      1      0.0000000      4.4570000     16.0440000     34.6910000
    258     33      3      0.0000000      6.0830000     15.7390000     35.5080000
    259     33      3      0.0000000      2.2370000     14.8360000     33.7490000
    260     33      2      0.0000000      4.6730000     16.5860000     33.7710000
    261     33      1      0.0000000      3.8710000     14.6630000     34.3780000
    262     33      2      0.0000000      3.8860000     16.6900000     35.3810000
    263     33      2      0.0000000      4.4700000     14.1930000     33.5660000
    264     33      2      0.0000000      3.7590000     14.1240000     35.3270000
    265     34      1      0.0000000     48.6540000     38.5290000     12.4850000
    266     34      3      0.0000000     46.9220000     38.2030000     12.2280000
    267     34      3      0.0000000     48.7140000     37.6900000      9.7760000
    268     34      2      0.0000000     49.0310000     37.9370000     13.3230000
    269     34      1      0.0000000     49.5680000     38.1010000     11.2870000
    270     34      2      0.0000000     48.8200000     39.6250000     12.6240000
    271     34      2      0.0000000     50.2670000     38.8770000     11.0020000
    272     34      2      0.0000000     50.1640000     37.2450000     11.6590000
    273     35      1      0.0000000     42.9230000     15.4950000     22.3900000
    274     35      3      0.0000000     41.9890000     16.3710000     23.7170000
    275     35      3      0.0000000     45.3640000     14.7210000     21.4040000
    276     35      2      0.0000000     42.6960000     16.1290000     21.5370000
    277     35      1      0.0000000     44.4140000     15.4630000     22.7050000
    278     35      2      0.0000000     42.4440000     14.4950000     22.3450000
    279     35      2      0.0000000     44.8860000     16.4930000     22.8460000
    280     35      2      0.0000000     44.6990000     14.8520000     23.5790000
    281     36      1      0.0000000     48.1890000     48.3080000     29.1670000
    282     36      3      0.0000000     49.5360000     48.2940000     30.3640000
    283     36      3      0.0000000     48.0390000     48.8130000     26.4730000
    284     36      2      0.0000000     47.8810000     49.3670000     29.0760000
    285     36      1      0.0000000     48.7560000     47.8050000     27.8060000
    286     36      2      0.0000000     47.4910000     47.6750000     29.6230000
    287     36      2      0.0000000     49.8440000     47.9090000     27.7610000
    288     36      2      0.0000000     48.3920000     46.7630000     27.7150000
    289     37      1      0.0000000     43.5830000     28.9330000     42.7810000
    290     37      3      0.0000000     44.2170000     30.0780000     44.0000000
    291     37      3      0.0000000     44.7970000     26.5140000     42.1910000
    292     37      2      0.0000000     44.1270000     29.1450000     41.8700000
    293     37      1      0.0000000     43.6900000     27.4620000     43.2840000
    294     37      2      0.0000000     42.5680000     29.2940000     42.5340000
    295     37      2      0.0000000     44.1010000     27.2910000     44.2740000
    296     37      2      0.0000000     42.8300000     26.8740000     43.1900000
    297     38      1      0.0000000     25.2100000      4.6680000     53.7990000
    298     38      3      0.0000000     26.4330000      4.4730000     52.5220000
    299     38      3      0.0000000     22.6390000      4.2120000     53.1570000
    300     38      2      0.0000000     24.7910000      5.6450000     53.5390000
    301     38      1      0.0000000     24.1500000      3.5530000     53.8490000
    302     38      2      0.0000000     25.7180000      4.8050000     54.7920000
    303     38      2      0.0000000     24.2330000      2.6110000     53.2920000
    304     38      2      0.0000000     23.8660000      3.5510000     54.8900000
    305     39      1      0.0000000     20.3320000     32.2190000     44.1690000
    306     39      3      0.0000000     18.8890000     31.4610000     43.4000000
    307     39      3      0.0000000     19.0310000     32.4600000     46.5360000
    308     39      2      0.0000000     20.1940000     33.3290000     43.9120000
    309     39      1      0.0000000     20.4280000     31.7790000     45.6520000
    310     39      2      0.0000000     21.1980000     31.8260000     43.5600000
    311     39      2      0.0000000     20.4240000     30.6770000     45.7180000
    312     39      2      0.0000000     21.2330000     32.2020000     46.2360000
    313     40      1      0.0000000     30.6970000     53.3400000     45.8200000
    314     40      3      0.0000000     31.9950000     52.1740000     46.2300000
    315     40      3      0.0000000     29.6870000     51.7650000     43.7220000
    316     40      2      0.0000000     31.0580000     53.9630000     45.0230000
    317     40      1      0.0000000     29.4930000     52.4750000     45.3600000
    318     40      2      0.0000000     30.4790000     54.0020000     46.7080000
    319     40      2      0.0000000     29.3230000     51.6700000     46.0700000
    320     40      2      0.0000000     28.5100000     53.0440000     45.3960000
    321     41      1      0.0000000     19.7410000     29.6260000     27.7710000
    322     41      3      0.0000000     18.3920000     29.9730000     28.8850000
    323     41      3      0.0000000     20.9210000     29.7050000     25.2800000
    324     41      2      0.0000000     19.7260000     28.5380000     27.6060000
    325     41      1      0.0000000     19.6840000     30.3570000     26.4570000
    326     41      2      0.0000000     20.6210000     29.9100000     28.3950000
    327     41      2      0.0000000     18.7030000     30.1950000     26.0010000
    328     41      2      0.0000000     19.8170000     31.4110000     26.6530000
    329     42      1      0.0000000      9.2130000     49.8490000     46.0160000
    330     42      3      0.0000000     10.9080000     49.5270000     46.7740000
    331     42      3      0.0000000      7.9800000     50.6410000     43.7340000
    332     42      2      0.0000000      8.9540000     50.7510000     46.5670000
    333     42      1      0.0000000      9.4760000     50.1240000     44.5200000
    334     42      2      0.0000000      8.5120000     49.0230000     46.2180000
    335     42      2      0.0000000     10.1880000     50.9350000     44.3960000
    336     42      2      0.0000000      9.7760000     49.2530000     43.9630000
    337     43      1      0.0000000     15.0950000     45.8110000      4.9240000
    338     43      3      0.0000000     16.8530000     45.8160000      4.7090000
    339     43      3      0.0000000     13.1710000     45.5750000      6.9060000
    340     43      2      0.0000000     14.7910000     44.8090000      4.9270000
    341     43      1      0.0000000     14.6560000     46.2820000      6.2920000
    342     43      2      0.0000000     14.5350000     46.4660000      4.2490000
    343     43      2      0.0000000     15.5360000     46.2140000      6.9860000
    344     43      2      0.0000000     14.3740000     47.2980000      6.2590000
    345     44      1      0.0000000     53.4960000     48.8680000     51.4070000
    346     44      3      0.0000000     53.5610000     50.6640000     51.2920000
    347     44      3      0.0000000     51.1030000     47.4840000     51.3810000
    348     44      2      0.0000000     54.5680000     48.6440000     51.6950000
    349     44      1      0.0000000     52.3610000     48.3510000     52.3450000
    350     44      2      0.0000000     53.4340000     48.4290000     50.3920000
    351     44      2      0.0000000     52.7970000     47.6140000     53.0460000
    352     44      2      0.0000000     51.9490000     49.2200000     52.9680000
    353     45      1      0.0000000     19.6450000      5.4380000     15.4890000
    354     45      3      0.0000000     20.5550000      3.8340000     15.5120000
    355     45      3      0.0000000     19.9230000      7.5480000     17.1530000
    356     45      2      0.0000000     18.7740000      5.3480000     14.8720000
    357     45      1      0.0000000     19.3150000      5.8570000     16.9660000
    358     45      2      0.0000000     20.2410000      6.2690000     15.0650000
    359     45      2      0.0000000     18.2980000      5.9000000     17.2720000
    360     45      2      0.0000000     19.9580000      5.1680000     17.6250000
    361     46      1      0.0000000     44.7410000     29.1910000     16.1550000